2
Lattice="2.038674 -2.15884 -1.214062 -2.224141 2.221598 -1.668881 2.180158 2.114857 1.55487" Properties=species:S:1:pos:R:3:velocities:R:3:dft_force:R:3:force_representation:S:1:pseudopotential:S:1:force_units:S:1 runtime_s=16.8771979 Ecut=18.0 virial_format=voigt length_units=angstrom dft_energy=-227.91079527 tol=1e-06 dataset=si_tiny_run2 kpoints_mp_grid="16 14 12" structure_id=27 energy_units=eV pbc="T T T"
Si       1.10554620      -0.16128625       1.08036032       0.00000000       0.00000000       0.00000000       1.86565952       6.43789604       1.01191983 cartesian si_tiny/Si.upf eV/angstrom
Si      -1.10554620       0.16128625      -1.08036032       0.00000000       0.00000000       0.00000000      -1.86565952      -6.43789604      -1.01191983 cartesian si_tiny/Si.upf eV/angstrom
2
Lattice="2.394776 -2.619661 -1.159337 -2.486624 2.529807 -1.163389 2.657275 2.790312 1.328223" Properties=species:S:1:pos:R:3:velocities:R:3:dft_force:R:3:force_representation:S:1:pseudopotential:S:1:force_units:S:1 runtime_s=20.54369739 Ecut=18.0 virial_format=voigt length_units=angstrom dft_energy=-229.27298091 tol=1e-06 dataset=si_tiny_run2 kpoints_mp_grid="17 17 9" structure_id=28 energy_units=eV pbc="T T T"
Si       1.29853056       0.11377103       0.82031472       0.00000000       0.00000000       0.00000000       0.04064522       0.05965485       0.02510031 cartesian si_tiny/Si.upf eV/angstrom
Si      -1.29853056      -0.11377103      -0.82031472       0.00000000       0.00000000       0.00000000      -0.04064522      -0.05965485      -0.02510031 cartesian si_tiny/Si.upf eV/angstrom
2
Lattice="2.271726 -2.135221 -1.398419 -2.304929 2.188543 -1.55738 2.261221 2.091514 1.458894" Properties=species:S:1:pos:R:3:velocities:R:3:dft_force:R:3:force_representation:S:1:pseudopotential:S:1:force_units:S:1 runtime_s=19.56067039 Ecut=18.0 virial_format=voigt length_units=angstrom dft_energy=-229.24532227 tol=1e-06 dataset=si_tiny_run2 kpoints_mp_grid="14 14 11" structure_id=29 energy_units=eV pbc="T T T"
Si       1.08986942       0.01150858       1.16671081       0.00000000       0.00000000       0.00000000       1.29259371      -0.65563947       0.31695740 cartesian si_tiny/Si.upf eV/angstrom
Si      -1.08986942      -0.01150858      -1.16671081       0.00000000       0.00000000       0.00000000      -1.29259371       0.65563947      -0.31695740 cartesian si_tiny/Si.upf eV/angstrom
2
Lattice="2.129967 -2.246183 -1.408138 -2.205431 2.210935 -1.481853 2.250412 2.291165 1.54729" Properties=species:S:1:pos:R:3:velocities:R:3:dft_force:R:3:force_representation:S:1:pseudopotential:S:1:force_units:S:1 runtime_s=21.43585118 Ecut=18.0 virial_format=voigt length_units=angstrom dft_energy=-229.13633968 tol=1e-06 dataset=si_tiny_run2 kpoints_mp_grid="15 14 11" structure_id=30 energy_units=eV pbc="T T T"
Si       1.15443700      -0.04151774       0.79586630       0.00000000       0.00000000       0.00000000       0.10290419       2.64717120       0.22512042 cartesian si_tiny/Si.upf eV/angstrom
Si      -1.15443700       0.04151774      -0.79586630       0.00000000       0.00000000       0.00000000      -0.10290419      -2.64717120      -0.22512042 cartesian si_tiny/Si.upf eV/angstrom
2
Lattice="2.652917 -2.331746 -1.029376 -2.682037 2.476096 -1.349239 2.896721 2.546429 1.083423" Properties=species:S:1:pos:R:3:velocities:R:3:dft_force:R:3:force_representation:S:1:pseudopotential:S:1:force_units:S:1 runtime_s=15.24204402 Ecut=18.0 virial_format=voigt length_units=angstrom dft_energy=-229.25645371 tol=1e-06 dataset=si_tiny_run2 kpoints_mp_grid="16 15 9" structure_id=31 energy_units=eV pbc="T T T"
Si       1.46360955       0.04330307       1.01698622       0.00000000       0.00000000       0.00000000       0.19470711      -0.17238689       0.01215744 cartesian si_tiny/Si.upf eV/angstrom
Si      -1.46360955      -0.04330307      -1.01698622       0.00000000       0.00000000       0.00000000      -0.19470711       0.17238689      -0.01215744 cartesian si_tiny/Si.upf eV/angstrom
2
Lattice="2.733615 -2.401513 -1.258119 -2.690895 2.390739 -1.161292 2.8922 2.602818 1.180496" Properties=species:S:1:pos:R:3:velocities:R:3:dft_force:R:3:force_representation:S:1:pseudopotential:S:1:force_units:S:1 runtime_s=19.44222446 Ecut=18.0 virial_format=voigt length_units=angstrom dft_energy=-229.27449502 tol=1e-06 dataset=si_tiny_run2 kpoints_mp_grid="15 16 9" structure_id=32 energy_units=eV pbc="T T T"
Si       1.50107889       0.12502432       1.10696507       0.00000000       0.00000000       0.00000000       0.23689383      -0.22104880      -0.05247993 cartesian si_tiny/Si.upf eV/angstrom
Si      -1.50107889      -0.12502432      -1.10696507       0.00000000       0.00000000       0.00000000      -0.23689383       0.22104880       0.05247993 cartesian si_tiny/Si.upf eV/angstrom
2
Lattice="2.585829 -2.070923 -1.782858 -2.478697 1.845882 -1.17142 2.391809 1.984035 1.585414" Properties=species:S:1:pos:R:3:velocities:R:3:dft_force:R:3:force_representation:S:1:pseudopotential:S:1:force_units:S:1 runtime_s=19.07723485 Ecut=18.0 virial_format=voigt length_units=angstrom dft_energy=-228.39069442 tol=1e-06 dataset=si_tiny_run2 kpoints_mp_grid="13 16 12" structure_id=33 energy_units=eV pbc="T T T"
Si       1.13130421       0.08270456       1.61138877       0.00000000       0.00000000       0.00000000      -0.16308252       4.74008090      -2.55484290 cartesian si_tiny/Si.upf eV/angstrom
Si      -1.13130421      -0.08270456      -1.61138877       0.00000000       0.00000000       0.00000000       0.16308252      -4.74008090       2.55484290 cartesian si_tiny/Si.upf eV/angstrom
2
Lattice="2.56772 -2.216309 -1.006067 -2.616085 2.385124 -1.406167 2.971604 2.571828 1.095042" Properties=species:S:1:pos:R:3:velocities:R:3:dft_force:R:3:force_representation:S:1:pseudopotential:S:1:force_units:S:1 runtime_s=19.70983546 Ecut=18.0 virial_format=voigt length_units=angstrom dft_energy=-229.24126739 tol=1e-06 dataset=si_tiny_run2 kpoints_mp_grid="16 15 9" structure_id=34 energy_units=eV pbc="T T T"
Si       1.42128949       0.09173394       1.17766490       0.00000000       0.00000000       0.00000000       0.09125676      -0.45677101      -0.08722547 cartesian si_tiny/Si.upf eV/angstrom
Si      -1.42128949      -0.09173394      -1.17766490       0.00000000       0.00000000       0.00000000      -0.09125676       0.45677101       0.08722547 cartesian si_tiny/Si.upf eV/angstrom
2
Lattice="2.389717 -2.512429 -1.247333 -2.363056 2.573099 -1.310501 2.34702 2.496392 1.198972" Properties=species:S:1:pos:R:3:velocities:R:3:dft_force:R:3:force_representation:S:1:pseudopotential:S:1:force_units:S:1 runtime_s=21.40975978 Ecut=18.0 virial_format=voigt length_units=angstrom dft_energy=-229.4679367 tol=1e-06 dataset=si_tiny_run2 kpoints_mp_grid="15 15 10" structure_id=35 energy_units=eV pbc="T T T"
Si       1.24021330      -0.03084452       1.07490369       0.00000000       0.00000000       0.00000000      -1.66207390      -0.05930115      -0.32932971 cartesian si_tiny/Si.upf eV/angstrom
Si      -1.24021330       0.03084452      -1.07490369       0.00000000       0.00000000       0.00000000       1.66207390       0.05930115       0.32932971 cartesian si_tiny/Si.upf eV/angstrom
2
Lattice="2.498808 -2.277911 -1.443497 -2.412508 2.282588 -1.293325 2.567352 2.432755 1.284292" Properties=species:S:1:pos:R:3:velocities:R:3:dft_force:R:3:force_representation:S:1:pseudopotential:S:1:force_units:S:1 runtime_s=18.712372 Ecut=18.0 virial_format=voigt length_units=angstrom dft_energy=-229.52312912 tol=1e-06 dataset=si_tiny_run2 kpoints_mp_grid="14 15 10" structure_id=36 energy_units=eV pbc="T T T"
Si       1.16259394       0.07896997       1.37880905       0.00000000       0.00000000       0.00000000       0.60762681      -0.12975277       0.09130818 cartesian si_tiny/Si.upf eV/angstrom
Si      -1.16259394      -0.07896997      -1.37880905       0.00000000       0.00000000       0.00000000      -0.60762681       0.12975277      -0.09130818 cartesian si_tiny/Si.upf eV/angstrom
2
Lattice="2.68356 -2.152695 -1.387968 -2.504842 2.256641 -1.249832 2.514378 2.162231 1.058228" Properties=species:S:1:pos:R:3:velocities:R:3:dft_force:R:3:force_representation:S:1:pseudopotential:S:1:force_units:S:1 runtime_s=20.03118195 Ecut=18.0 virial_format=voigt length_units=angstrom dft_energy=-229.42126504 tol=1e-06 dataset=si_tiny_run2 kpoints_mp_grid="14 15 10" structure_id=37 energy_units=eV pbc="T T T"
Si       1.14079923      -0.04558211       1.42908811       0.00000000       0.00000000       0.00000000      -0.04395289      -0.83395998      -0.33474373 cartesian si_tiny/Si.upf eV/angstrom
Si      -1.14079923       0.04558211      -1.42908811       0.00000000       0.00000000       0.00000000       0.04395289       0.83395998       0.33474373 cartesian si_tiny/Si.upf eV/angstrom
2
Lattice="2.376957 -2.734522 -1.395526 -2.226139 2.635317 -0.933763 2.440684 2.949067 1.116818" Properties=species:S:1:pos:R:3:velocities:R:3:dft_force:R:3:force_representation:S:1:pseudopotential:S:1:force_units:S:1 runtime_s=18.9917284 Ecut=18.0 virial_format=voigt length_units=angstrom dft_energy=-229.00910252 tol=1e-06 dataset=si_tiny_run2 kpoints_mp_grid="16 17 9" structure_id=38 energy_units=eV pbc="T T T"
Si       1.08724020       0.03180390       0.35730293       0.00000000       0.00000000       0.00000000       1.42881894      -0.10424976       0.34018017 cartesian si_tiny/Si.upf eV/angstrom
Si      -1.08724020      -0.03180390      -0.35730293       0.00000000       0.00000000       0.00000000      -1.42881894       0.10424976      -0.34018017 cartesian si_tiny/Si.upf eV/angstrom
2
Lattice="2.49507 -2.59371 -1.141981 -2.480919 2.624266 -1.172544 2.555631 2.668423 1.116268" Properties=species:S:1:pos:R:3:velocities:R:3:dft_force:R:3:force_representation:S:1:pseudopotential:S:1:force_units:S:1 runtime_s=19.37280747 Ecut=18.0 virial_format=voigt length_units=angstrom dft_energy=-229.28630282 tol=1e-06 dataset=si_tiny_run2 kpoints_mp_grid="16 16 9" structure_id=39 energy_units=eV pbc="T T T"
Si       1.29571303       0.00976893       0.62421499       0.00000000       0.00000000       0.00000000      -0.06625815       0.02403429      -0.00584164 cartesian si_tiny/Si.upf eV/angstrom
Si      -1.29571303      -0.00976893      -0.62421499       0.00000000       0.00000000       0.00000000       0.06625815      -0.02403429       0.00584164 cartesian si_tiny/Si.upf eV/angstrom
2
Lattice="1.854978 -2.011243 -1.348422 -1.849253 2.067258 -1.441201 2.120549 2.282539 1.338232" Properties=species:S:1:pos:R:3:velocities:R:3:dft_force:R:3:force_representation:S:1:pseudopotential:S:1:force_units:S:1 runtime_s=12.01087064 Ecut=18.0 virial_format=voigt length_units=angstrom dft_energy=-228.33591513 tol=1e-06 dataset=si_tiny_run2 kpoints_mp_grid="15 14 11" structure_id=40 energy_units=eV pbc="T T T"
Si       1.01998796       0.03249739       0.90406032       0.00000000       0.00000000       0.00000000      -0.83921970       0.92691952      -0.82303202 cartesian si_tiny/Si.upf eV/angstrom
Si      -1.01998796      -0.03249739      -0.90406032       0.00000000       0.00000000       0.00000000       0.83921970      -0.92691952       0.82303202 cartesian si_tiny/Si.upf eV/angstrom
2
Lattice="2.297508 -2.402235 -1.107922 -2.388519 2.358271 -1.194206 2.600344 2.61406 1.275903" Properties=species:S:1:pos:R:3:velocities:R:3:dft_force:R:3:force_representation:S:1:pseudopotential:S:1:force_units:S:1 runtime_s=23.19495411 Ecut=18.0 virial_format=voigt length_units=angstrom dft_energy=-229.22316871 tol=1e-06 dataset=si_tiny_run2 kpoints_mp_grid="17 17 10" structure_id=41 energy_units=eV pbc="T T T"
Si       1.29408271       0.00056571       1.03714859       0.00000000       0.00000000       0.00000000      -0.40608549       0.29422423      -0.00623092 cartesian si_tiny/Si.upf eV/angstrom
Si      -1.29408271      -0.00056571      -1.03714859       0.00000000       0.00000000       0.00000000       0.40608549      -0.29422423       0.00623092 cartesian si_tiny/Si.upf eV/angstrom
2
Lattice="1.850844 -2.133599 -1.370786 -1.801557 2.1402 -1.293203 2.269643 2.601685 1.280479" Properties=species:S:1:pos:R:3:velocities:R:3:dft_force:R:3:force_representation:S:1:pseudopotential:S:1:force_units:S:1 runtime_s=14.37502071 Ecut=18.0 virial_format=voigt length_units=angstrom dft_energy=-229.01518857 tol=1e-06 dataset=si_tiny_run2 kpoints_mp_grid="15 15 10" structure_id=42 energy_units=eV pbc="T T T"
Si       1.06504020       0.17527888       0.59946502       0.00000000       0.00000000       0.00000000      -0.85003967      -1.32337785      -0.00592676 cartesian si_tiny/Si.upf eV/angstrom
Si      -1.06504020      -0.17527888      -0.59946502       0.00000000       0.00000000       0.00000000       0.85003967       1.32337785       0.00592676 cartesian si_tiny/Si.upf eV/angstrom
2
Lattice="2.696304 -2.436941 -1.269483 -2.69442 2.299358 -1.010815 2.511467 2.253988 1.265221" Properties=species:S:1:pos:R:3:velocities:R:3:dft_force:R:3:force_representation:S:1:pseudopotential:S:1:force_units:S:1 runtime_s=28.94306445 Ecut=18.0 virial_format=voigt length_units=angstrom dft_energy=-228.82000122 tol=1e-06 dataset=si_tiny_run2 kpoints_mp_grid="17 18 11" structure_id=43 energy_units=eV pbc="T T T"
Si       1.21966465      -0.05751233       1.25199714       0.00000000       0.00000000       0.00000000      -0.02947650       2.15893918      -0.63312678 cartesian si_tiny/Si.upf eV/angstrom
Si      -1.21966465       0.05751233      -1.25199714       0.00000000       0.00000000       0.00000000       0.02947650      -2.15893918       0.63312678 cartesian si_tiny/Si.upf eV/angstrom
2
Lattice="2.086507 -2.709597 -1.509226 -2.217134 2.444623 -1.261253 2.092395 2.584858 1.749727" Properties=species:S:1:pos:R:3:velocities:R:3:dft_force:R:3:force_representation:S:1:pseudopotential:S:1:force_units:S:1 runtime_s=23.37978906 Ecut=18.0 virial_format=voigt length_units=angstrom dft_energy=-229.17403006 tol=1e-06 dataset=si_tiny_run2 kpoints_mp_grid="16 16 11" structure_id=44 energy_units=eV pbc="T T T"
Si       1.05847877      -0.02219603       0.55115009       0.00000000       0.00000000       0.00000000      -1.08044847       0.38052135       0.74144218 cartesian si_tiny/Si.upf eV/angstrom
Si      -1.05847877       0.02219603      -0.55115009       0.00000000       0.00000000       0.00000000       1.08044847      -0.38052135      -0.74144218 cartesian si_tiny/Si.upf eV/angstrom
2
Lattice="2.806272 -2.391633 -1.118541 -2.914172 2.309902 -1.166867 2.785416 2.262877 1.317644" Properties=species:S:1:pos:R:3:velocities:R:3:dft_force:R:3:force_representation:S:1:pseudopotential:S:1:force_units:S:1 runtime_s=21.95215395 Ecut=18.0 virial_format=voigt length_units=angstrom dft_energy=-228.96534761 tol=1e-06 dataset=si_tiny_run2 kpoints_mp_grid="17 17 10" structure_id=45 energy_units=eV pbc="T T T"
Si       1.49638759      -0.00958936       1.29032582       0.00000000       0.00000000       0.00000000       0.13152707       0.58983049      -0.13758445 cartesian si_tiny/Si.upf eV/angstrom
Si      -1.49638759       0.00958936      -1.29032582       0.00000000       0.00000000       0.00000000      -0.13152707      -0.58983049       0.13758445 cartesian si_tiny/Si.upf eV/angstrom
2
Lattice="2.256692 -2.031805 -1.368796 -2.178368 2.146329 -1.436439 2.092206 1.945643 1.224942" Properties=species:S:1:pos:R:3:velocities:R:3:dft_force:R:3:force_representation:S:1:pseudopotential:S:1:force_units:S:1 runtime_s=15.26177075 Ecut=18.0 virial_format=voigt length_units=angstrom dft_energy=-228.56886298 tol=1e-06 dataset=si_tiny_run2 kpoints_mp_grid="14 14 12" structure_id=46 energy_units=eV pbc="T T T"
Si       1.08636603      -0.03275077       1.31815537       0.00000000       0.00000000       0.00000000      -2.08567280      -0.06132505      -0.21378573 cartesian si_tiny/Si.upf eV/angstrom
Si      -1.08636603       0.03275077      -1.31815537       0.00000000       0.00000000       0.00000000       2.08567280       0.06132505       0.21378573 cartesian si_tiny/Si.upf eV/angstrom
2
Lattice="2.123502 -1.976659 -1.34897 -2.153343 2.003431 -1.453683 2.247393 2.070709 1.404534" Properties=species:S:1:pos:R:3:velocities:R:3:dft_force:R:3:force_representation:S:1:pseudopotential:S:1:force_units:S:1 runtime_s=14.31919518 Ecut=18.0 virial_format=voigt length_units=angstrom dft_energy=-228.51022987 tol=1e-06 dataset=si_tiny_run2 kpoints_mp_grid="15 15 11" structure_id=47 energy_units=eV pbc="T T T"
Si       1.18249255      -0.00878339       1.18782545       0.00000000       0.00000000       0.00000000      -2.85060180       0.76684250       0.12394287 cartesian si_tiny/Si.upf eV/angstrom
Si      -1.18249255       0.00878339      -1.18782545       0.00000000       0.00000000       0.00000000       2.85060180      -0.76684250      -0.12394287 cartesian si_tiny/Si.upf eV/angstrom
2
Lattice="2.142006 -2.404621 -1.253449 -2.107495 2.444514 -1.262873 2.146797 2.443923 1.189859" Properties=species:S:1:pos:R:3:velocities:R:3:dft_force:R:3:force_representation:S:1:pseudopotential:S:1:force_units:S:1 runtime_s=20.11953342 Ecut=18.0 virial_format=voigt length_units=angstrom dft_energy=-229.34729677 tol=1e-06 dataset=si_tiny_run2 kpoints_mp_grid="16 15 11" structure_id=48 energy_units=eV pbc="T T T"
Si       1.06237263      -0.07600332       0.68615945       0.00000000       0.00000000       0.00000000      -0.09744074       1.00236319      -0.09234189 cartesian si_tiny/Si.upf eV/angstrom
Si      -1.06237263       0.07600332      -0.68615945       0.00000000       0.00000000       0.00000000       0.09744074      -1.00236319       0.09234189 cartesian si_tiny/Si.upf eV/angstrom
2
Lattice="2.10244 -2.010625 -1.174725 -2.220949 2.093214 -1.545726 2.063091 1.852767 1.393383" Properties=species:S:1:pos:R:3:velocities:R:3:dft_force:R:3:force_representation:S:1:pseudopotential:S:1:force_units:S:1 runtime_s=17.50906087 Ecut=18.0 virial_format=voigt length_units=angstrom dft_energy=-227.61754615 tol=1e-06 dataset=si_tiny_run2 kpoints_mp_grid="16 15 13" structure_id=49 energy_units=eV pbc="T T T"
Si       1.12926570      -0.05763184       1.24504338       0.00000000       0.00000000       0.00000000      -1.17850929       0.65231113       0.07842126 cartesian si_tiny/Si.upf eV/angstrom
Si      -1.12926570       0.05763184      -1.24504338       0.00000000       0.00000000       0.00000000       1.17850929      -0.65231113      -0.07842126 cartesian si_tiny/Si.upf eV/angstrom
2
Lattice="2.232546 -2.644381 -0.834659 -2.52321 2.66947 -1.416485 2.380807 2.501977 1.370435" Properties=species:S:1:pos:R:3:velocities:R:3:dft_force:R:3:force_representation:S:1:pseudopotential:S:1:force_units:S:1 runtime_s=25.88636897 Ecut=18.0 virial_format=voigt length_units=angstrom dft_energy=-228.82818536 tol=1e-06 dataset=si_tiny_run2 kpoints_mp_grid="19 17 11" structure_id=50 energy_units=eV pbc="T T T"
Si       1.26124732      -0.07214671       0.76631897       0.00000000       0.00000000       0.00000000      -0.29934495       0.05348488       0.13760352 cartesian si_tiny/Si.upf eV/angstrom
Si      -1.26124732       0.07214671      -0.76631897       0.00000000       0.00000000       0.00000000       0.29934495      -0.05348488      -0.13760352 cartesian si_tiny/Si.upf eV/angstrom
2
Lattice="2.509317 -2.418165 -1.154357 -2.4437 2.459662 -1.109383 2.508088 2.482552 1.033271" Properties=species:S:1:pos:R:3:velocities:R:3:dft_force:R:3:force_representation:S:1:pseudopotential:S:1:force_units:S:1 runtime_s=20.41948465 Ecut=18.0 virial_format=voigt length_units=angstrom dft_energy=-229.16662607 tol=1e-06 dataset=si_tiny_run2 kpoints_mp_grid="16 16 10" structure_id=51 energy_units=eV pbc="T T T"
Si       1.19593715      -0.05737607       1.02190243       0.00000000       0.00000000       0.00000000       0.21378899       0.23965587       0.03072958 cartesian si_tiny/Si.upf eV/angstrom
Si      -1.19593715       0.05737607      -1.02190243       0.00000000       0.00000000       0.00000000      -0.21378899      -0.23965587      -0.03072958 cartesian si_tiny/Si.upf eV/angstrom
2
Lattice="3.935514 0.0 0.0 1.967074 3.256574 0.0 1.728375 1.085623 3.061917" Properties=species:S:1:pos:R:3:velocities:R:3:dft_force:R:3:force_representation:S:1:pseudopotential:S:1:force_units:S:1 runtime_s=42.89381886 Ecut=26.0 virial_format=voigt length_units=angstrom dft_energy=-230.15711158 tol=1e-06 dataset=si_tiny_run2 kpoints_mp_grid="11 11 11" structure_id=2 energy_units=eV pbc="T T T"
Si       0.00000000       0.00000000       0.00000000       0.00000000       0.00000000       0.00000000      -0.10716222       0.79356428       0.56188355 cartesian si_tiny/Si.upf eV/angstrom
Si       1.93079748       1.11474625       0.78824460       0.00000000       0.00000000       0.00000000       0.10716201      -0.79356427      -0.56188354 cartesian si_tiny/Si.upf eV/angstrom
2
Lattice="3.867451 0.0 0.0 1.903427 3.240924 0.0 1.723933 1.067353 3.256666" Properties=species:S:1:pos:R:3:velocities:R:3:dft_force:R:3:force_representation:S:1:pseudopotential:S:1:force_units:S:1 runtime_s=43.72226249 Ecut=26.0 virial_format=voigt length_units=angstrom dft_energy=-230.15915526 tol=1e-06 dataset=si_tiny_run2 kpoints_mp_grid="11 11 11" structure_id=3 energy_units=eV pbc="T T T"
Si       0.00000000       0.00000000       0.00000000       0.00000000       0.00000000       0.00000000       0.31954088       0.87247390      -0.77046975 cartesian si_tiny/Si.upf eV/angstrom
Si       1.93079670       1.11474656       0.78824344       0.00000000       0.00000000       0.00000000      -0.31954087      -0.87247387       0.77046971 cartesian si_tiny/Si.upf eV/angstrom
2
Lattice="4.053009 0.0 0.0 1.935709 3.230548 0.0 1.857244 0.963028 3.032233" Properties=species:S:1:pos:R:3:velocities:R:3:dft_force:R:3:force_representation:S:1:pseudopotential:S:1:force_units:S:1 runtime_s=41.52505984 Ecut=26.0 virial_format=voigt length_units=angstrom dft_energy=-230.04645081 tol=1e-06 dataset=si_tiny_run2 kpoints_mp_grid="11 11 11" structure_id=4 energy_units=eV pbc="T T T"
Si       0.00000000       0.00000000       0.00000000       0.00000000       0.00000000       0.00000000      -0.56215357       1.30143940       0.90727232 cartesian si_tiny/Si.upf eV/angstrom
Si       1.93079559       1.11474490       0.78824413       0.00000000       0.00000000       0.00000000       0.56215320      -1.30143924      -0.90727207 cartesian si_tiny/Si.upf eV/angstrom
2
Lattice="3.792927 0.0 0.0 1.827085 3.356905 0.0 1.678781 1.050134 3.268531" Properties=species:S:1:pos:R:3:velocities:R:3:dft_force:R:3:force_representation:S:1:pseudopotential:S:1:force_units:S:1 runtime_s=39.29624123 Ecut=26.0 virial_format=voigt length_units=angstrom dft_energy=-230.15475797 tol=1e-06 dataset=si_tiny_run2 kpoints_mp_grid="11 11 11" structure_id=5 energy_units=eV pbc="T T T"
Si       0.00000000       0.00000000       0.00000000       0.00000000       0.00000000       0.00000000       0.93270139      -0.16937905      -0.70403263 cartesian si_tiny/Si.upf eV/angstrom
Si       1.93079552       1.11474502       0.78824547       0.00000000       0.00000000       0.00000000      -0.93270141       0.16937903       0.70403243 cartesian si_tiny/Si.upf eV/angstrom
2
Lattice="4.071919 0.0 0.0 1.89175 3.328273 0.0 1.85538 1.188504 3.07242" Properties=species:S:1:pos:R:3:velocities:R:3:dft_force:R:3:force_representation:S:1:pseudopotential:S:1:force_units:S:1 runtime_s=44.17606013 Ecut=26.0 virial_format=voigt length_units=angstrom dft_energy=-230.13323989 tol=1e-06 dataset=si_tiny_run2 kpoints_mp_grid="10 11 11" structure_id=6 energy_units=eV pbc="T T T"
Si       0.00000000       0.00000000       0.00000000       0.00000000       0.00000000       0.00000000      -0.55621946       0.21458851       0.75902645 cartesian si_tiny/Si.upf eV/angstrom
Si       1.93079676       1.11474537       0.78824471       0.00000000       0.00000000       0.00000000       0.55621975      -0.21458872      -0.75902662 cartesian si_tiny/Si.upf eV/angstrom
2
Lattice="3.993785 0.0 0.0 1.899635 3.316998 0.0 1.935359 1.192485 3.157898" Properties=species:S:1:pos:R:3:velocities:R:3:dft_force:R:3:force_representation:S:1:pseudopotential:S:1:force_units:S:1 runtime_s=47.42854752 Ecut=26.0 virial_format=voigt length_units=angstrom dft_energy=-230.22659815 tol=1e-06 dataset=si_tiny_run2 kpoints_mp_grid="11 11 11" structure_id=7 energy_units=eV pbc="T T T"
Si       0.00000000       0.00000000       0.00000000       0.00000000       0.00000000       0.00000000      -0.49161963       0.22924604       0.03550000 cartesian si_tiny/Si.upf eV/angstrom
Si       1.93079697       1.11474557       0.78824292       0.00000000       0.00000000       0.00000000       0.49161915      -0.22924556      -0.03549976 cartesian si_tiny/Si.upf eV/angstrom
2
Lattice="3.854268 0.0 0.0 1.856715 3.324968 0.0 1.831564 1.110081 3.243055" Properties=species:S:1:pos:R:3:velocities:R:3:dft_force:R:3:force_representation:S:1:pseudopotential:S:1:force_units:S:1 runtime_s=44.95016211 Ecut=26.0 virial_format=voigt length_units=angstrom dft_energy=-230.23759876 tol=1e-06 dataset=si_tiny_run2 kpoints_mp_grid="11 11 11" structure_id=8 energy_units=eV pbc="T T T"
Si       0.00000000       0.00000000       0.00000000       0.00000000       0.00000000       0.00000000       0.32137489       0.10588177      -0.53365535 cartesian si_tiny/Si.upf eV/angstrom
Si       1.93079700       1.11474607       0.78824398       0.00000000       0.00000000       0.00000000      -0.32137483      -0.10588179       0.53365542 cartesian si_tiny/Si.upf eV/angstrom
2
Lattice="3.73629 0.0 0.0 1.908786 3.300978 0.0 2.031438 1.107542 3.128481" Properties=species:S:1:pos:R:3:velocities:R:3:dft_force:R:3:force_representation:S:1:pseudopotential:S:1:force_units:S:1 runtime_s=48.79923718 Ecut=26.0 virial_format=voigt length_units=angstrom dft_energy=-230.20751694 tol=1e-06 dataset=si_tiny_run2 kpoints_mp_grid="12 11 11" structure_id=9 energy_units=eV pbc="T T T"
Si       0.00000000       0.00000000       0.00000000       0.00000000       0.00000000       0.00000000       0.35050641      -0.18902682      -0.26829828 cartesian si_tiny/Si.upf eV/angstrom
Si       1.91066948       1.10312537       0.78002730       0.00000000       0.00000000       0.00000000      -0.35050647       0.18902686       0.26829832 cartesian si_tiny/Si.upf eV/angstrom
2
Lattice="3.756837 0.0 0.0 2.101772 3.287271 0.0 2.048608 1.097006 3.119596" Properties=species:S:1:pos:R:3:velocities:R:3:dft_force:R:3:force_representation:S:1:pseudopotential:S:1:force_units:S:1 runtime_s=45.01563044 Ecut=26.0 virial_format=voigt length_units=angstrom dft_energy=-230.18294748 tol=1e-06 dataset=si_tiny_run2 kpoints_mp_grid="12 11 11" structure_id=10 energy_units=eV pbc="T T T"
Si       0.00000000       0.00000000       0.00000000       0.00000000       0.00000000       0.00000000      -0.07539168      -0.08243450      -0.18489318 cartesian si_tiny/Si.upf eV/angstrom
Si       1.91067141       1.10312598       0.78002690       0.00000000       0.00000000       0.00000000       0.07539164       0.08243451       0.18489325 cartesian si_tiny/Si.upf eV/angstrom
2
Lattice="3.803132 0.0 0.0 2.171038 3.328501 0.0 1.977264 1.172741 3.289355" Properties=species:S:1:pos:R:3:velocities:R:3:dft_force:R:3:force_representation:S:1:pseudopotential:S:1:force_units:S:1 runtime_s=51.95625198 Ecut=26.0 virial_format=voigt length_units=angstrom dft_energy=-230.1374497 tol=1e-06 dataset=si_tiny_run2 kpoints_mp_grid="11 11 11" structure_id=11 energy_units=eV pbc="T T T"
Si       0.00000000       0.00000000       0.00000000       0.00000000       0.00000000       0.00000000      -0.42962003      -0.36591720      -0.83799724 cartesian si_tiny/Si.upf eV/angstrom
Si       1.91066952       1.10312584       0.78002778       0.00000000       0.00000000       0.00000000       0.42961979       0.36591724       0.83799757 cartesian si_tiny/Si.upf eV/angstrom
2
Lattice="3.741986 0.0 0.0 1.811935 3.334769 0.0 1.891313 1.143828 3.042084" Properties=species:S:1:pos:R:3:velocities:R:3:dft_force:R:3:force_representation:S:1:pseudopotential:S:1:force_units:S:1 runtime_s=40.50361828 Ecut=26.0 virial_format=voigt length_units=angstrom dft_energy=-230.16816619 tol=1e-06 dataset=si_tiny_run2 kpoints_mp_grid="11 11 11" structure_id=12 energy_units=eV pbc="T T T"
Si       0.00000000       0.00000000       0.00000000       0.00000000       0.00000000       0.00000000       0.65619807      -0.44389480       0.57369429 cartesian si_tiny/Si.upf eV/angstrom
Si       1.91067176       1.10312654       0.78002684       0.00000000       0.00000000       0.00000000      -0.65619804       0.44389474      -0.57369421 cartesian si_tiny/Si.upf eV/angstrom
2
Lattice="3.946745 0.0 0.0 1.920837 3.237153 0.0 1.904347 1.255944 3.29121" Properties=species:S:1:pos:R:3:velocities:R:3:dft_force:R:3:force_representation:S:1:pseudopotential:S:1:force_units:S:1 runtime_s=47.22664609 Ecut=26.0 virial_format=voigt length_units=angstrom dft_energy=-230.12276128 tol=1e-06 dataset=si_tiny_run2 kpoints_mp_grid="11 11 11" structure_id=13 energy_units=eV pbc="T T T"
Si       0.00000000       0.00000000       0.00000000       0.00000000       0.00000000       0.00000000      -0.57840239       0.53716180      -0.89716729 cartesian si_tiny/Si.upf eV/angstrom
Si       1.91067036       1.10312767       0.78002664       0.00000000       0.00000000       0.00000000       0.57840284      -0.53716289       0.89716849 cartesian si_tiny/Si.upf eV/angstrom
2
Lattice="3.624122 0.0 0.0 2.14393 3.408219 0.0 1.976346 1.185698 3.054084" Properties=species:S:1:pos:R:3:velocities:R:3:dft_force:R:3:force_representation:S:1:pseudopotential:S:1:force_units:S:1 runtime_s=47.03685766 Ecut=26.0 virial_format=voigt length_units=angstrom dft_energy=-229.96846788 tol=1e-06 dataset=si_tiny_run2 kpoints_mp_grid="12 11 11" structure_id=14 energy_units=eV pbc="T T T"